REMARK  Name = 
REMARK  5 active torsions:
REMARK  status: ('A' for Active; 'I' for Inactive)
REMARK    1  A    between atoms: O_2  and  C_3
REMARK    2  A    between atoms: C_6  and  O_7
REMARK    3  A    between atoms: O_7  and  C_8
REMARK    4  A    between atoms: C_8  and  C_9
REMARK    5  A    between atoms: C_11  and  C_12
REMARK                            x       y       z     vdW  Elec       q    Type
REMARK                         _______ _______ _______ _____ _____    ______ ____
ROOT
ATOM      1  C   UNL     1       7.759   0.095  -1.111  0.00  0.00    +0.149 C 
ATOM      2  N   UNL     1       7.321   0.104  -2.351  0.00  0.00    -0.250 NA
ATOM      3  C   UNL     1       8.276   0.112  -3.468  0.00  0.00    +0.149 C 
ATOM      4  C   UNL     1       7.516   0.121  -4.785  0.00  0.00    +0.002 A 
ATOM      5  C   UNL     1       8.236   0.130  -6.032  0.00  0.00    -0.002 A 
ATOM      6  C   UNL     1       7.516   0.139  -7.279  0.00  0.00    -0.000 A 
ATOM      7  C   UNL     1       8.236   0.148  -8.526  0.00  0.00    -0.000 A 
ATOM      8  C   UNL     1       7.516   0.157  -9.774  0.00  0.00    -0.003 A 
ATOM      9  C   UNL     1       6.076   0.121  -4.785  0.00  0.00    -0.004 A 
ATOM     10  C   UNL     1       5.316   0.112  -3.468  0.00  0.00    +0.119 C 
ATOM     11  N   UNL     1       9.204   0.093  -0.842  0.00  0.00    -0.288 N 
ATOM     12  C   UNL     1       9.694   0.083   0.544  0.00  0.00    +0.114 C 
ENDROOT
BRANCH   3  13
ATOM     13  C   UNL     1       9.150  -1.130  -3.397  0.00  0.00    +0.004 A 
ATOM     14  C   UNL     1       9.972  -1.366  -2.238  0.00  0.00    -0.002 A 
ATOM     15  C   UNL     1      10.800  -2.542  -2.170  0.00  0.00    -0.000 A 
ATOM     16  C   UNL     1      11.622  -2.778  -1.011  0.00  0.00    -0.000 A 
ATOM     17  C   UNL     1      12.450  -3.955  -0.943  0.00  0.00    -0.000 A 
ATOM     18  C   UNL     1       9.156  -2.070  -4.487  0.00  0.00    -0.002 A 
ENDBRANCH   3  13
BRANCH   1  19
ATOM     19  C   UNL     1       6.771   0.087   0.045  0.00  0.00    +0.265 C 
BRANCH  19  20
ATOM     20  O   UNL     1       7.481   0.078   1.274  0.00  0.00    -0.468 OA
BRANCH  20  24
ATOM     21  C   UNL     1       3.171   0.078   1.257  0.00  0.00    +0.139 A 
ATOM     22  C   UNL     1       4.611   0.078   1.257  0.00  0.00    +0.040 A 
ATOM     23  C   UNL     1       5.331   0.070   2.504  0.00  0.00    +0.040 A 
ATOM     24  C   UNL     1       6.771   0.070   2.504  0.00  0.00    +0.139 A 
ATOM     25  C   UNL     1       7.491   0.061   3.751  0.00  0.00    +0.040 A 
ATOM     26  C   UNL     1       2.451   0.070   2.504  0.00  0.00    +0.040 A 
BRANCH  21  28
ATOM     27  C   UNL     1       1.041   0.087   0.027  0.00  0.00    +0.252 C 
ATOM     28  O   UNL     1       2.461   0.087   0.027  0.00  0.00    -0.471 OA
ENDBRANCH  21  28
ENDBRANCH  20  24
ENDBRANCH  19  20
ENDBRANCH   1  19
TORSDOF 5
