REMARK  Name = 
REMARK  19 active torsions:
REMARK  status: ('A' for Active; 'I' for Inactive)
REMARK    1  A    between atoms: C_2  and  C_4
REMARK    2  A    between atoms: C_4  and  C_5
REMARK    3  A    between atoms: C_9  and  C_10
REMARK    4  A    between atoms: C_10  and  C_11
REMARK    5  A    between atoms: C_11  and  C_12
REMARK    6  A    between atoms: C_12  and  C_13
REMARK    7  A    between atoms: C_18  and  C_19
REMARK    8  A    between atoms: C_19  and  C_20
REMARK    9  A    between atoms: C_20  and  C_21
REMARK   10  A    between atoms: CA_43  and  CB_44
REMARK   11  A    between atoms: CB_44  and  CG_45
REMARK   12  A    between atoms: C_61  and  C_62
REMARK   13  A    between atoms: C_69  and  N_70
REMARK   14  A    between atoms: C_71  and  C_73
REMARK   15  A    between atoms: C_73  and  N_74
REMARK   16  A    between atoms: C_73  and  C_87
REMARK   17  A    between atoms: C_75  and  C_77
REMARK   18  A    between atoms: C_77  and  N_78
REMARK   19  A    between atoms: C_79  and  C_81
REMARK                            x       y       z     vdW  Elec       q    Type
REMARK                         _______ _______ _______ _____ _____    ______ ____
ROOT
ATOM      1  C   UNK A   1      26.181  -4.709 -10.418  0.00  0.00    +0.173 C 
ATOM      2  N   UNK A   1      21.683 -17.565  -6.109  0.00  0.00    -0.196 NA
ATOM      3  C   UNK A   1      20.370 -18.183  -6.341  0.00  0.00    +0.262 C 
ATOM      4  O   UNK A   1      20.136 -18.787  -7.435  0.00  0.00    -0.271 OA
ATOM      5  C   UNK A   1      19.292 -18.101  -5.273  0.00  0.00    +0.173 C 
ATOM      6  N   UNK A   1      18.115 -17.407  -5.817  0.00  0.00    -0.196 NA
ATOM      7  C   UNK A   1      17.415 -17.955  -6.987  0.00  0.00    +0.262 C 
ATOM      8  O   UNK A   1      16.397 -17.356  -7.457  0.00  0.00    -0.271 OA
ATOM      9  C   UNK A   1      17.907 -19.239  -7.635  0.00  0.00    +0.173 C 
ATOM     10  N   UNK A   1      16.842 -20.252  -7.585  0.00  0.00    -0.196 NA
ATOM     11  C   UNK A   1      15.552 -19.996  -8.240  0.00  0.00    +0.264 C 
ATOM     12  O   UNK A   1      14.632 -20.872  -8.197  0.00  0.00    -0.271 OA
ATOM     13  C   UNK A   1      15.318 -18.683  -8.970  0.00  0.00    +0.201 C 
ATOM     14  N   UNK A   1      16.524 -17.848  -8.875  0.00  0.00    -0.194 NA
ATOM     15  C   CYS A   2      16.550 -16.520  -9.505  0.00  0.00    +0.263 C 
ATOM     16  O   CYS A   2      17.593 -15.798  -9.423  0.00  0.00    -0.271 OA
ATOM     17  CA  CYS A   2      15.329 -16.010 -10.254  0.00  0.00    +0.184 C 
ATOM     18  CB  CYS A   2      14.229 -17.058 -10.202  0.00  0.00    +0.100 C 
ATOM     19  SG  CYS A   2      14.815 -18.587 -10.973  0.00  0.00    -0.080 S 
ATOM     20  SG  CYS A   2      13.295 -20.034 -10.902  0.00  0.00    -0.080 S 
ATOM     21  CB  CYS A   2      23.715  -3.049 -10.276  0.00  0.00    +0.100 C 
ATOM     22  CA  CYS A   2      23.555  -4.095  -9.185  0.00  0.00    +0.184 C 
ATOM     23  N   CYS A   2      23.786  -5.432  -9.750  0.00  0.00    -0.195 NA
ATOM     24  C   UNK A   1      25.081  -5.756 -10.366  0.00  0.00    +0.262 C 
ATOM     25  O   UNK A   1      25.280  -6.912 -10.855  0.00  0.00    -0.271 OA
ATOM     26  C   CYS A   2      22.148  -4.022  -8.615  0.00  0.00    +0.263 C 
ATOM     27  O   CYS A   2      21.382  -5.035  -8.680  0.00  0.00    -0.271 OA
ATOM     28  N   HIS A   3      21.672  -2.780  -7.988  0.00  0.00    -0.196 NA
ATOM     29  CA  HIS A   3      20.311  -2.710  -7.437  0.00  0.00    +0.177 C 
ATOM     30  C   HIS A   3      20.072  -1.327  -6.852  0.00  0.00    +0.246 C 
ATOM     31  O   HIS A   3      20.992  -0.452  -6.896  0.00  0.00    -0.273 OA
ATOM     32  N   UNK A   4      18.778  -1.003  -6.237  0.00  0.00    -0.269 N 
ATOM     33  C   UNK A   4      18.547   0.334  -5.671  0.00  0.00    +0.097 C 
ATOM     34  C   UNK A   4      17.139   0.407  -5.101  0.00  0.00    +0.057 C 
ATOM     35  C   UNK A   4      16.901   1.789  -4.516  0.00  0.00    +0.181 C 
ATOM     36  O   UNK A   4      17.333   3.108  -4.213  0.00  0.00    -0.221 OA
ATOM     37  C   UNK A   4      17.713  -2.016  -6.187  0.00  0.00    +0.184 C 
ATOM     38  C   UNK A   4      18.205  -3.300  -6.834  0.00  0.00    +0.263 C 
ATOM     39  O   UNK A   4      19.382  -3.361  -7.311  0.00  0.00    -0.271 OA
ATOM     40  N   UNK A   5      17.320  -4.471  -6.910  0.00  0.00    -0.193 NA
ATOM     41  C   UNK A   5      17.796  -5.713  -7.536  0.00  0.00    +0.209 C 
ATOM     42  C   UNK A   5      16.696  -6.761  -7.485  0.00  0.00    +0.102 C 
ATOM     43  S   UNK A   5      17.281  -8.290  -8.256  0.00  0.00    -0.080 S 
ATOM     44  S   UNK A   5      15.761  -9.737  -8.184  0.00  0.00    -0.080 S 
ATOM     45  C   UNK A   5      16.347 -11.266  -8.956  0.00  0.00    +0.100 C 
ATOM     46  C   UNK A   5      15.247 -12.313  -8.904  0.00  0.00    +0.184 C 
ATOM     47  C   UNK A   5      15.739 -13.597  -9.552  0.00  0.00    +0.263 C 
ATOM     48  O   UNK A   5      16.915 -13.658 -10.028  0.00  0.00    -0.271 OA
ATOM     49  N   CYS A   2      14.854 -14.768  -9.627  0.00  0.00    -0.195 NA
ENDROOT
BRANCH  41  50
ATOM     50  C   UNK A   5      18.168  -5.440  -8.985  0.00  0.00    +0.385 C 
ATOM     51  O   UNK A   5      17.869  -4.475  -9.756  0.00  0.00    -0.244 OA
ATOM     52  O   UNK A   5      18.915  -6.541  -9.481  0.00  0.00    -0.244 OA
ENDBRANCH  41  50
BRANCH  46  53
ATOM     53  N   UNK A   5      14.887 -12.578  -7.503  0.00  0.00    -0.195 NA
ATOM     54  C   UNK A   1      15.790 -12.098  -6.447  0.00  0.00    +0.262 C 
ATOM     55  O   UNK A   1      16.841 -11.453  -6.754  0.00  0.00    -0.271 OA
BRANCH  54  56
ATOM     56  C   UNK A   1      15.466 -12.373  -4.988  0.00  0.00    +0.173 C 
BRANCH  56  57
ATOM     57  N   UNK A   1      15.400 -13.825  -4.766  0.00  0.00    -0.196 NA
ATOM     58  C   UNK A   1      14.424 -14.638  -5.506  0.00  0.00    +0.264 C 
ATOM     59  O   UNK A   1      13.637 -14.085  -6.337  0.00  0.00    -0.271 OA
BRANCH  58  60
ATOM     60  C   UNK A   1      14.355 -16.139  -5.276  0.00  0.00    +0.201 C 
BRANCH  60  61
ATOM     61  N   UNK A   1      13.306 -16.717  -6.129  0.00  0.00    -0.194 NA
ATOM     62  C   UNK A   1      13.042 -18.163  -6.090  0.00  0.00    +0.262 C 
ATOM     63  O   UNK A   1      13.720 -18.912  -5.320  0.00  0.00    -0.271 OA
BRANCH  62  64
ATOM     64  C   UNK A   1      11.970 -18.639  -7.057  0.00  0.00    +0.173 C 
ATOM     65  C   UNK A   1      12.142 -16.772  -8.410  0.00  0.00    +0.041 C 
ATOM     66  C   UNK A   1      11.093 -17.125  -9.451  0.00  0.00    +0.089 C 
ATOM     67  C   UNK A   1      10.473 -18.471  -9.110  0.00  0.00    +0.242 C 
ATOM     68  O   UNK A   1       9.567 -18.960  -9.854  0.00  0.00    -0.273 OA
ATOM     69  N   UNK A   1      10.922 -19.205  -7.918  0.00  0.00    -0.198 NA
ENDBRANCH  62  64
ENDBRANCH  60  61
ENDBRANCH  58  60
ENDBRANCH  56  57
BRANCH  56  70
ATOM     70  C   UNK A   1      16.551 -11.775  -4.106  0.00  0.00    +0.029 C 
ATOM     71  C   UNK A   1      16.619 -10.274  -4.336  0.00  0.00    +0.002 C 
ATOM     72  C   UNK A   1      16.227 -12.050  -2.647  0.00  0.00    +0.002 C 
ENDBRANCH  56  70
ENDBRANCH  54  56
ENDBRANCH  46  53
BRANCH   1  73
ATOM     73  C   UNK A   1      27.379  -4.055 -11.088  0.00  0.00    +0.031 C 
BRANCH  73  75
ATOM     74  C   UNK A   1      28.414  -2.994  -9.097  0.00  0.00    +0.000 C 
ATOM     75  C   UNK A   1      28.049  -2.797 -10.559  0.00  0.00    +0.002 C 
ATOM     76  C   UNK A   1      29.309  -2.519 -11.362  0.00  0.00    +0.000 C 
ENDBRANCH  73  75
ENDBRANCH   1  73
BRANCH   5  77
ATOM     77  C   UNK A   1      18.898 -19.504  -4.841  0.00  0.00    +0.031 C 
BRANCH  77  78
ATOM     78  C   UNK A   1      20.266 -20.051  -4.466  0.00  0.00    +0.004 C 
BRANCH  78  79
ATOM     79  C   UNK A   1      20.221 -21.570  -4.466  0.00  0.00    +0.021 C 
BRANCH  79  80
ATOM     80  C   UNK A   1      21.589 -22.117  -4.091  0.00  0.00    +0.109 C 
ATOM     81  N   UNK A   1      21.546 -23.587  -4.091  0.00  0.00    -0.131 NA
ENDBRANCH  79  80
ENDBRANCH  78  79
ENDBRANCH  77  78
ENDBRANCH   5  77
BRANCH   9  82
ATOM     82  C   UNK A   1      18.278 -18.966  -9.083  0.00  0.00    +0.043 C 
BRANCH  82  83
ATOM     83  C   UNK A   1      19.056 -20.244  -9.355  0.00  0.00    +0.116 C 
BRANCH  83  84
ATOM     84  C   UNK A   1      19.498 -20.268 -10.809  0.00  0.00    +0.365 C 
ATOM     85  O   UNK A   1      19.199 -19.303 -11.580  0.00  0.00    -0.246 OA
ATOM     86  O   UNK A   1      20.246 -21.368 -11.305  0.00  0.00    -0.246 OA
ENDBRANCH  83  84
ENDBRANCH  82  83
ENDBRANCH   9  82
BRANCH  29  87
ATOM     87  CB  HIS A   3      20.151  -3.756  -6.346  0.00  0.00    +0.078 C 
BRANCH  87  88
ATOM     88  CG  HIS A   3      20.390  -5.139  -6.931  0.00  0.00    +0.082 A 
ATOM     89  CD2 HIS A   3      20.294  -6.303  -6.089  0.00  0.00    +0.115 A 
ATOM     90  NE2 HIS A   3      20.513  -7.570  -6.625  0.00  0.00    -0.221 NA
ATOM     91  CE1 HIS A   3      20.421  -8.696  -5.811  0.00  0.00    +0.199 A 
ATOM     92  ND1 HIS A   3      20.701  -5.279  -8.282  0.00  0.00    -0.227 NA
ENDBRANCH  87  88
ENDBRANCH  29  87
TORSDOF 19
