REMARK  Name = 
REMARK  8 active torsions:
REMARK  status: ('A' for Active; 'I' for Inactive)
REMARK    1  A    between atoms: C_3  and  C_5
REMARK    2  A    between atoms: C_7  and  C_8
REMARK    3  A    between atoms: C_8  and  C_10
REMARK    4  A    between atoms: C_10  and  N_11
REMARK    5  A    between atoms: N_11  and  C_12
REMARK    6  A    between atoms: C_12  and  C_14
REMARK    7  A    between atoms: C_14  and  C_15
REMARK    8  A    between atoms: C_15  and  C_16
REMARK                            x       y       z     vdW  Elec       q    Type
REMARK                         _______ _______ _______ _____ _____    ______ ____
ROOT
ATOM      1  C   UNL     1       6.695  -0.070  -0.122  0.00  0.00    +0.126 C 
ENDROOT
BRANCH   1   2
ATOM      2  C   UNL     1       7.682  -0.791  -1.024  0.00  0.00    +0.192 C 
ATOM      3  O   UNL     1       8.499   0.161  -1.690  0.00  0.00    -0.217 OA
BRANCH   2   6
ATOM      4  C   UNL     1       4.762  -0.834  -1.078  0.00  0.00    +0.094 A 
ATOM      5  C   UNL     1       5.482  -1.613  -2.052  0.00  0.00    +0.006 A 
ATOM      6  C   UNL     1       6.922  -1.613  -2.052  0.00  0.00    +0.009 A 
ATOM      7  C   UNL     1       7.642  -2.392  -3.026  0.00  0.00    +0.001 A 
ATOM      8  C   UNL     1       9.083  -2.392  -3.026  0.00  0.00    +0.042 A 
ATOM      9  C   UNL     1       5.482  -0.055  -0.104  0.00  0.00    +0.200 A 
ATOM     10  O   UNL     1       4.772   0.713   0.856  0.00  0.00    -0.286 OA
BRANCH   4  13
ATOM     11  C   UNL     1       1.037  -0.039  -0.084  0.00  0.00    +0.139 C 
ATOM     12  N   UNL     1       2.507  -0.039  -0.084  0.00  0.00    -0.200 NA
ATOM     13  C   UNL     1       3.242  -0.834  -1.078  0.00  0.00    +0.268 C 
ATOM     14  O   UNL     1       2.607  -1.522  -1.938  0.00  0.00    -0.268 OA
ENDBRANCH   4  13
ENDBRANCH   2   6
ENDBRANCH   1   2
BRANCH   1  15
ATOM     15  N   UNL     1       7.430   0.726   0.872  0.00  0.00    -0.216 NA
BRANCH  15  16
ATOM     16  C   UNL     1       6.474   1.423   1.745  0.00  0.00    +0.073 C 
ATOM     17  C   UNL     1       5.600   0.404   2.457  0.00  0.00    +0.019 C 
BRANCH  16  18
ATOM     18  C   UNL     1       7.234   2.246   2.773  0.00  0.00    +0.022 C 
BRANCH  18  19
ATOM     19  C   UNL     1       6.247   2.967   3.675  0.00  0.00    +0.028 C 
BRANCH  19  20
ATOM     20  C   UNL     1       7.007   3.789   4.703  0.00  0.00    -0.019 A 
ATOM     21  C   UNL     1       6.287   4.568   5.677  0.00  0.00    -0.001 A 
ATOM     22  C   UNL     1       7.007   5.348   6.651  0.00  0.00    +0.040 A 
ATOM     23  C   UNL     1       6.287   6.127   7.625  0.00  0.00    +0.176 A 
ATOM     24  C   UNL     1       7.007   6.906   8.599  0.00  0.00    +0.176 A 
ATOM     25  C   UNL     1       8.447   3.789   4.703  0.00  0.00    +0.036 A 
ATOM     26  O   UNL     1       6.297   7.674   9.559  0.00  0.00    -0.435 OA
ATOM     27  C   UNL     1       7.007   8.442  10.520  0.00  0.00    +0.429 C 
ATOM     28  O   UNL     1       4.867   6.127   7.625  0.00  0.00    -0.435 OA
ENDBRANCH  19  20
ENDBRANCH  18  19
ENDBRANCH  16  18
ENDBRANCH  15  16
ENDBRANCH   1  15
TORSDOF 8
