REMARK  Name = 
REMARK  9 active torsions:
REMARK  status: ('A' for Active; 'I' for Inactive)
REMARK    1  A    between atoms: C_2  and  C_4
REMARK    2  A    between atoms: C_6  and  C_7
REMARK    3  A    between atoms: C_13  and  C_14
REMARK    4  A    between atoms: C_20  and  C_21
REMARK    5  A    between atoms: C_22  and  C_23
REMARK    6  A    between atoms: C_23  and  C_25
REMARK    7  A    between atoms: C_25  and  C_26
REMARK    8  A    between atoms: C_26  and  C_28
REMARK    9  A    between atoms: C_28  and  C_29
REMARK                            x       y       z     vdW  Elec       q    Type
REMARK                         _______ _______ _______ _____ _____    ______ ____
ROOT
ATOM      1  C   UNL     1       2.955   1.386  -0.562  0.00  0.00    +0.007 A 
ATOM      2  S   UNL     1       4.641   1.674  -0.686  0.00  0.00    -0.092 S 
ATOM      3  C   UNL     1       5.212   3.159  -1.324  0.00  0.00    +0.025 A 
ATOM      4  C   UNL     1       6.628   3.401  -1.428  0.00  0.00    -0.016 A 
ATOM      5  C   UNL     1       2.019   2.391  -0.994  0.00  0.00    -0.002 A 
ENDROOT
BRANCH   3   6
ATOM      6  C   UNL     1       4.225   4.220  -1.781  0.00  0.00    +0.006 A 
ATOM      7  C   UNL     1       2.809   3.978  -1.677  0.00  0.00    +0.000 A 
ATOM      8  C   UNL     1       1.873   4.984  -2.110  0.00  0.00    +0.000 A 
ATOM      9  C   UNL     1       0.457   4.742  -2.006  0.00  0.00    +0.000 A 
ATOM     10  C   UNL     1      -0.479   5.748  -2.438  0.00  0.00    +0.000 A 
ATOM     11  C   UNL     1       4.705   5.467  -2.317  0.00  0.00    +0.000 A 
ENDBRANCH   3   6
BRANCH   4  12
ATOM     12  C   UNL     1       7.135   4.717  -1.995  0.00  0.00    +0.023 C 
ATOM     13  C   UNL     1       8.655   4.717  -1.995  0.00  0.00    +0.004 C 
ATOM     14  C   UNL     1       9.162   6.034  -2.561  0.00  0.00    +0.000 C 
ATOM     15  C   UNL     1      10.682   6.034  -2.561  0.00  0.00    +0.000 C 
ATOM     16  C   UNL     1      11.188   7.350  -3.127  0.00  0.00    +0.000 C 
ATOM     17  C   UNL     1       6.628   5.866  -1.138  0.00  0.00    +0.004 C 
ENDBRANCH   4  12
BRANCH   1  19
ATOM     18  C   UNL     1       0.928   0.069   0.005  0.00  0.00    +0.005 C 
ATOM     19  C   UNL     1       2.448   0.069   0.005  0.00  0.00    +0.028 C 
ATOM     20  C   UNL     1       2.955  -1.079  -0.852  0.00  0.00    +0.005 C 
ENDBRANCH   1  19
BRANCH   5  21
ATOM     21  C   UNL     1       0.524   2.136  -0.885  0.00  0.00    -0.002 C 
ATOM     22  C   UNL     1      -0.360   3.086  -1.293  0.00  0.00    +0.006 C 
BRANCH  22  23
ATOM     23  C   UNL     1      -1.854   2.831  -1.183  0.00  0.00    +0.177 C 
ATOM     24  O   UNL     1      -2.197   2.605   0.176  0.00  0.00    -0.218 OA
BRANCH  23  25
ATOM     25  C   UNL     1      -2.614   4.040  -1.703  0.00  0.00    +0.071 C 
BRANCH  25  26
ATOM     26  C   UNL     1      -4.109   3.785  -1.594  0.00  0.00    +0.166 C 
ATOM     27  O   UNL     1      -4.452   3.559  -0.234  0.00  0.00    -0.222 OA
BRANCH  26  28
ATOM     28  C   UNL     1      -4.869   4.994  -2.114  0.00  0.00    +0.147 C 
BRANCH  28  29
ATOM     29  C   UNL     1      -6.363   4.739  -2.004  0.00  0.00    +0.367 C 
ATOM     30  O   UNL     1      -6.787   3.638  -1.531  0.00  0.00    -0.246 OA
ATOM     31  O   UNL     1      -7.286   5.730  -2.431  0.00  0.00    -0.246 OA
ENDBRANCH  28  29
ENDBRANCH  26  28
ENDBRANCH  25  26
ENDBRANCH  23  25
ENDBRANCH  22  23
ENDBRANCH   5  21
TORSDOF 9
