REMARK  Name = 
REMARK  7 active torsions:
REMARK  status: ('A' for Active; 'I' for Inactive)
REMARK    1  A    between atoms: C_2  and  C_3
REMARK    2  A    between atoms: C_3  and  C_4
REMARK    3  A    between atoms: N_9  and  C_10
REMARK    4  A    between atoms: C_10  and  C_11
REMARK    5  A    between atoms: C_11  and  C_12
REMARK    6  A    between atoms: C_12  and  C_13
REMARK    7  A    between atoms: C_13  and  N_14
REMARK                            x       y       z     vdW  Elec       q    Type
REMARK                         _______ _______ _______ _____ _____    ______ ____
ROOT
ATOM      1  C   UNL     1       2.876   5.817  -2.303  0.00  0.00    +0.072 C 
ENDROOT
BRANCH   1   2
ATOM      2  N   UNL     1       2.141   7.002  -2.767  0.00  0.00    -0.270 NA
ATOM      3  C   UNL     1       0.696   6.752  -2.669  0.00  0.00    +0.094 C 
ATOM      4  C   UNL     1      -0.064   7.978  -3.149  0.00  0.00    +0.110 C 
ATOM      5  N   UNL     1      -1.510   7.728  -3.051  0.00  0.00    -0.290 N 
ATOM      6  C   UNL     1      -2.000   6.437  -2.546  0.00  0.00    +0.140 A 
ATOM      7  N   UNL     1      -1.095   5.452  -2.159  0.00  0.00    -0.194 NA
ATOM      8  S   UNL     1      -1.650   3.988  -1.586  0.00  0.00    +0.014 S 
ATOM      9  C   UNL     1      -0.536   2.774  -1.110  0.00  0.00    +0.050 A 
ATOM     10  C   UNL     1      -1.016   1.510  -0.615  0.00  0.00    +0.008 A 
ATOM     11  C   UNL     1      -0.080   0.491  -0.215  0.00  0.00    +0.001 A 
ATOM     12  C   UNL     1      -0.560  -0.773   0.280  0.00  0.00    +0.000 A 
ATOM     13  C   UNL     1       0.376  -1.793   0.679  0.00  0.00    +0.003 A 
ATOM     14  C   UNL     1       0.880   3.019  -1.206  0.00  0.00    +0.040 A 
ATOM     15  C   UNL     1      -2.465   8.768  -3.459  0.00  0.00    +0.110 C 
ATOM     16  C   UNL     1       2.496   7.282  -4.166  0.00  0.00    +0.094 C 
ENDBRANCH   1   2
BRANCH   1  17
ATOM     17  C   UNL     1       4.370   6.076  -2.404  0.00  0.00    +0.019 C 
BRANCH  17  18
ATOM     18  C   UNL     1       5.130   4.850  -1.924  0.00  0.00    +0.023 C 
BRANCH  18  19
ATOM     19  C   UNL     1       6.625   5.109  -2.025  0.00  0.00    +0.101 C 
BRANCH  19  25
ATOM     20  C   UNL     1       4.598   1.404  -0.573  0.00  0.00    +0.017 C 
ATOM     21  C   UNL     1       5.105   0.284  -1.467  0.00  0.00    +0.001 C 
ATOM     22  C   UNL     1       5.105   2.738  -1.096  0.00  0.00    +0.086 C 
ATOM     23  C   UNL     1       6.625   2.738  -1.096  0.00  0.00    +0.231 C 
ATOM     24  O   UNL     1       7.260   1.713  -0.695  0.00  0.00    -0.274 OA
ATOM     25  N   UNL     1       7.360   3.923  -1.561  0.00  0.00    -0.230 N 
ATOM     26  C   UNL     1       8.830   3.923  -1.561  0.00  0.00    +0.231 C 
ATOM     27  O   UNL     1       9.465   4.948  -1.962  0.00  0.00    -0.274 OA
ATOM     28  C   UNL     1       5.105   1.189   0.844  0.00  0.00    +0.086 C 
BRANCH  20  29
ATOM     29  C   UNL     1       3.078   1.404  -0.573  0.00  0.00    +0.001 C 
BRANCH  29  31
ATOM     30  C   UNL     1       1.051   0.070  -0.050  0.00  0.00    +0.000 C 
ATOM     31  C   UNL     1       2.571   0.070  -0.050  0.00  0.00    +0.000 C 
ENDBRANCH  29  31
ENDBRANCH  20  29
ENDBRANCH  19  25
ENDBRANCH  18  19
ENDBRANCH  17  18
ENDBRANCH   1  17
TORSDOF 7
