REMARK  Name = 
REMARK  3 active torsions:
REMARK  status: ('A' for Active; 'I' for Inactive)
REMARK    1  A    between atoms: C_2  and  N_3
REMARK    2  A    between atoms: C_2  and  C_19
REMARK    3  A    between atoms: C_4  and  C_6
REMARK                            x       y       z     vdW  Elec       q    Type
REMARK                         _______ _______ _______ _____ _____    ______ ____
ROOT
ATOM      1  C   UNL     1      -1.261   0.489  -1.210  0.00  0.00    +0.155 C 
ATOM      2  C   UNL     1      -1.297   1.647  -4.657  0.00  0.00    +0.053 C 
ATOM      3  C   UNL     1      -2.791   1.735  -4.920  0.00  0.00    -0.016 A 
ATOM      4  C   UNL     1      -3.727   1.386  -3.882  0.00  0.00    +0.021 A 
ATOM      5  S   UNL     1      -5.413   1.486  -4.179  0.00  0.00    -0.090 S 
ATOM      6  C   UNL     1      -5.985   2.001  -5.712  0.00  0.00    +0.029 A 
ATOM      7  C   UNL     1      -7.401   2.085  -5.962  0.00  0.00    +0.006 A 
ATOM      8  C   UNL     1      -7.881   2.518  -7.249  0.00  0.00    +0.001 A 
ATOM      9  C   UNL     1      -9.297   2.601  -7.498  0.00  0.00    +0.000 A 
ATOM     10  C   UNL     1      -9.777   3.034  -8.785  0.00  0.00    +0.000 A 
ATOM     11  C   UNL     1      -5.049   2.350  -6.750  0.00  0.00    +0.002 A 
ATOM     12  C   UNL     1      -3.221   0.930  -2.524  0.00  0.00    +0.122 C 
ATOM     13  N   UNL     1      -1.751   0.930  -2.524  0.00  0.00    -0.205 NA
ENDROOT
BRANCH   1  15
ATOM     14  N   UNL     1      -0.884   0.364   1.296  0.00  0.00    -0.202 NA
ATOM     15  C   UNL     1      -1.747   0.030   0.155  0.00  0.00    +0.258 C 
ATOM     16  O   UNL     1      -2.805  -0.652   0.336  0.00  0.00    -0.272 OA
BRANCH  14  18
ATOM     17  C   UNL     1      -2.569  -0.832   2.597  0.00  0.00    +0.028 C 
ATOM     18  C   UNL     1      -1.243  -0.090   2.648  0.00  0.00    +0.118 C 
BRANCH  18  19
ATOM     19  C   UNL     1      -0.162  -1.019   3.174  0.00  0.00    -0.003 A 
ATOM     20  C   UNL     1      -0.287  -1.599   4.487  0.00  0.00    -0.003 A 
ATOM     21  C   UNL     1       0.738  -2.480   4.985  0.00  0.00    -0.000 A 
ATOM     22  C   UNL     1       0.613  -3.059   6.298  0.00  0.00    -0.000 A 
ATOM     23  C   UNL     1       1.637  -3.940   6.797  0.00  0.00    -0.000 A 
ATOM     24  C   UNL     1       0.987  -1.321   2.360  0.00  0.00    -0.003 A 
ENDBRANCH  18  19
ENDBRANCH  14  18
ENDBRANCH   1  15
TORSDOF 3
