REMARK  Name = 
REMARK  45 active torsions:
REMARK  status: ('A' for Active; 'I' for Inactive)
REMARK    1  A    between atoms: O_2  and  C_3
REMARK    2  A    between atoms: C_6  and  C_7
REMARK    3  A    between atoms: C_7  and  O_8
REMARK    4  A    between atoms: O_8  and  C_9
REMARK    5  A    between atoms: C_9  and  C_11
REMARK    6  A    between atoms: C_12  and  C_13
REMARK    7  A    between atoms: C_12  and  O_15
REMARK    8  A    between atoms: O_15  and  C_16
REMARK    9  A    between atoms: C_18  and  C_19
REMARK   10  A    between atoms: C_19  and  O_20
REMARK   11  A    between atoms: O_20  and  S_21
REMARK   12  A    between atoms: C_25  and  O_26
REMARK   13  A    between atoms: O_26  and  C_27
REMARK   14  A    between atoms: C_29  and  C_30
REMARK   15  A    between atoms: C_30  and  O_32
REMARK   16  A    between atoms: O_32  and  C_33
REMARK   17  A    between atoms: C_33  and  C_34
REMARK   18  A    between atoms: C_37  and  O_38
REMARK   19  A    between atoms: C_42  and  O_43
REMARK   20  A    between atoms: O_43  and  C_44
REMARK   21  A    between atoms: C_46  and  C_47
REMARK   22  A    between atoms: C_47  and  O_48
REMARK   23  A    between atoms: O_48  and  S_49
REMARK   24  A    between atoms: C_53  and  O_54
REMARK   25  A    between atoms: O_54  and  C_55
REMARK   26  A    between atoms: C_57  and  C_58
REMARK   27  A    between atoms: C_58  and  O_60
REMARK   28  A    between atoms: O_60  and  C_61
REMARK   29  A    between atoms: C_61  and  C_62
REMARK   30  A    between atoms: C_65  and  O_66
REMARK   31  A    between atoms: C_70  and  O_71
REMARK   32  A    between atoms: O_71  and  C_72
REMARK   33  A    between atoms: C_74  and  C_75
REMARK   34  A    between atoms: C_75  and  O_76
REMARK   35  A    between atoms: O_76  and  S_77
REMARK   36  A    between atoms: C_85  and  N_86
REMARK   37  A    between atoms: N_86  and  S_87
REMARK   38  A    between atoms: C_93  and  O_94
REMARK   39  A    between atoms: O_94  and  S_95
REMARK   40  A    between atoms: C_101  and  N_102
REMARK   41  A    between atoms: N_102  and  S_103
REMARK   42  A    between atoms: C_109  and  O_110
REMARK   43  A    between atoms: O_110  and  S_111
REMARK   44  A    between atoms: C_117  and  N_118
REMARK   45  A    between atoms: N_118  and  S_119
REMARK                            x       y       z     vdW  Elec       q    Type
REMARK                         _______ _______ _______ _____ _____    ______ ____
ROOT
ATOM      1  C   UNL     1       0.173  -8.564  -2.262  0.00  0.00    +0.257 C 
ATOM      2  O   UNL     1      -0.932  -9.445  -2.122  0.00  0.00    -0.327 OA
ATOM      3  C   UNL     1      -0.458 -10.767  -1.911  0.00  0.00    +0.179 C 
ATOM      4  C   UNL     1      -1.641 -11.711  -1.761  0.00  0.00    +0.179 C 
ATOM      5  C   UNL     1      -1.134 -13.126  -1.536  0.00  0.00    +0.204 C 
ATOM      6  O   UNL     1      -2.238 -14.007  -1.396  0.00  0.00    -0.219 OA
ATOM      7  C   UNL     1       1.017  -8.604  -0.999  0.00  0.00    +0.189 C 
ENDROOT
BRANCH   3   8
ATOM      8  C   UNL     1       0.386 -10.808  -0.648  0.00  0.00    +0.209 C 
BRANCH   8   9
ATOM      9  O   UNL     1       1.491  -9.926  -0.788  0.00  0.00    -0.198 OA
BRANCH   9  10
ATOM     10  S   UNL     1       2.441  -9.972   0.633  0.00  0.00    +0.239 S 
ATOM     11  O   UNL     1       1.590  -9.538   1.829  0.00  0.00    -0.116 OA
ATOM     12  O   UNL     1       2.951 -11.397   0.860  0.00  0.00    -0.116 OA
ATOM     13  O   UNL     1       3.771  -8.911   0.464  0.00  0.00    -0.022 OA
ENDBRANCH   9  10
ENDBRANCH   8   9
ENDBRANCH   3   8
BRANCH   1  14
ATOM     14  O   UNL     1      -0.301  -7.241  -2.472  0.00  0.00    -0.326 OA
BRANCH  14  18
ATOM     15  C   UNL     1       2.911  -7.761   0.041  0.00  0.00    +0.269 C 
ATOM     16  O   UNL     1       2.122  -7.723  -1.139  0.00  0.00    -0.317 OA
ATOM     17  C   UNL     1       1.648  -6.401  -1.350  0.00  0.00    +0.245 C 
ATOM     18  C   UNL     1       0.804  -6.360  -2.613  0.00  0.00    +0.189 C 
ATOM     19  C   UNL     1       0.297  -4.945  -2.838  0.00  0.00    +0.216 C 
ATOM     20  O   UNL     1      -0.492  -4.907  -4.018  0.00  0.00    -0.218 OA
ATOM     21  C   UNL     1       4.093  -6.818  -0.109  0.00  0.00    +0.236 C 
BRANCH  17  22
ATOM     22  C   UNL     1       2.831  -5.457  -1.500  0.00  0.00    +0.347 C 
ATOM     23  O   UNL     1       2.979  -4.790  -2.571  0.00  0.00    -0.247 OA
BRANCH  22  24
ATOM     24  O   UNL     1       3.769  -5.321  -0.443  0.00  0.00    -0.442 OA
BRANCH  24  25
ATOM     25  C   UNL     1       4.874  -4.440  -0.583  0.00  0.00    +0.235 C 
BRANCH  25  26
ATOM     26  C   UNL     1       5.718  -4.481   0.680  0.00  0.00    +0.021 A 
ATOM     27  C   UNL     1       6.902  -3.667   0.781  0.00  0.00    +0.002 A 
ATOM     28  C   UNL     1       7.702  -3.706   1.978  0.00  0.00    +0.037 A 
ATOM     29  C   UNL     1       8.886  -2.892   2.079  0.00  0.00    +0.139 A 
ATOM     30  C   UNL     1       9.686  -2.931   3.276  0.00  0.00    +0.037 A 
ATOM     31  C   UNL     1       5.334  -5.333   1.776  0.00  0.00    +0.002 A 
BRANCH  29  32
ATOM     32  O   UNL     1       9.265  -2.052   0.999  0.00  0.00    -0.471 OA
ATOM     33  C   UNL     1       8.476  -2.014  -0.181  0.00  0.00    +0.252 C 
ENDBRANCH  29  32
ENDBRANCH  25  26
ENDBRANCH  24  25
ENDBRANCH  22  24
ENDBRANCH  17  22
BRANCH  15  34
ATOM     34  O   UNL     1       3.384  -9.083   0.251  0.00  0.00    -0.326 OA
BRANCH  34  38
ATOM     35  C   UNL     1       5.986  -5.974   0.931  0.00  0.00    +0.309 C 
ATOM     36  O   UNL     1       4.882  -6.856   1.071  0.00  0.00    -0.317 OA
ATOM     37  C   UNL     1       5.355  -8.178   1.281  0.00  0.00    +0.181 C 
ATOM     38  C   UNL     1       4.173  -9.121   1.432  0.00  0.00    +0.179 C 
ATOM     39  C   UNL     1       4.679 -10.537   1.657  0.00  0.00    +0.206 C 
ATOM     40  O   UNL     1       3.575 -11.418   1.797  0.00  0.00    -0.219 OA
ATOM     41  C   UNL     1       6.831  -6.015   2.194  0.00  0.00    +0.202 C 
BRANCH  35  42
ATOM     42  O   UNL     1       5.513  -4.652   0.720  0.00  0.00    -0.453 OA
BRANCH  42  44
ATOM     43  C   UNL     1       5.982  -2.320   0.349  0.00  0.00    +0.117 C 
ATOM     44  C   UNL     1       6.436  -3.586   0.551  0.00  0.00    +0.159 C 
BRANCH  43  45
ATOM     45  C   UNL     1       6.970  -1.179   0.167  0.00  0.00    +0.345 C 
ATOM     46  O   UNL     1       8.219  -1.408   0.204  0.00  0.00    -0.245 OA
BRANCH  45  47
ATOM     47  O   UNL     1       6.496   0.144  -0.043  0.00  0.00    -0.440 OA
BRANCH  47  48
ATOM     48  C   UNL     1       7.419   1.209  -0.213  0.00  0.00    +0.235 C 
BRANCH  48  52
ATOM     49  C   UNL     1       3.059   1.278  -0.224  0.00  0.00    +0.139 A 
ATOM     50  C   UNL     1       4.499   1.278  -0.224  0.00  0.00    +0.037 A 
ATOM     51  C   UNL     1       5.219   2.509  -0.420  0.00  0.00    +0.002 A 
ATOM     52  C   UNL     1       6.659   2.509  -0.420  0.00  0.00    +0.021 A 
ATOM     53  C   UNL     1       7.379   3.741  -0.616  0.00  0.00    +0.002 A 
ATOM     54  C   UNL     1       2.339   2.509  -0.420  0.00  0.00    +0.037 A 
BRANCH  49  56
ATOM     55  C   UNL     1       0.929   0.063  -0.030  0.00  0.00    +0.252 C 
ATOM     56  O   UNL     1       2.349   0.063  -0.030  0.00  0.00    -0.471 OA
ENDBRANCH  49  56
ENDBRANCH  48  52
ENDBRANCH  47  48
ENDBRANCH  45  47
ENDBRANCH  43  45
BRANCH  44  57
ATOM     57  C   UNL     1       7.930  -3.860   0.594  0.00  0.00    +0.246 C 
ATOM     58  O   UNL     1       8.640  -2.646   0.401  0.00  0.00    -0.212 OA
ENDBRANCH  44  57
ENDBRANCH  42  44
ENDBRANCH  35  42
BRANCH  37  59
ATOM     59  C   UNL     1       6.199  -8.219   2.545  0.00  0.00    +0.209 C 
BRANCH  59  60
ATOM     60  O   UNL     1       7.304  -7.337   2.404  0.00  0.00    -0.198 OA
BRANCH  60  61
ATOM     61  S   UNL     1       8.254  -7.383   3.825  0.00  0.00    +0.239 S 
ATOM     62  O   UNL     1       7.404  -6.949   5.022  0.00  0.00    -0.116 OA
ATOM     63  O   UNL     1       8.764  -8.808   4.052  0.00  0.00    -0.116 OA
ATOM     64  O   UNL     1       9.584  -6.322   3.656  0.00  0.00    -0.022 OA
ENDBRANCH  60  61
ENDBRANCH  59  60
ENDBRANCH  37  59
BRANCH  41  65
ATOM     65  N   UNL     1       7.974  -5.103   2.049  0.00  0.00    -0.046 NA
BRANCH  65  66
ATOM     66  S   UNL     1       8.952  -5.150   3.511  0.00  0.00    +0.197 S 
ATOM     67  O   UNL     1       8.101  -4.716   4.707  0.00  0.00    -0.126 OA
ATOM     68  O   UNL     1       9.462  -6.575   3.738  0.00  0.00    -0.126 OA
ATOM     69  O   UNL     1      10.282  -4.088   3.342  0.00  0.00    -0.031 OA
ENDBRANCH  65  66
ENDBRANCH  41  65
ENDBRANCH  34  38
ENDBRANCH  15  34
BRANCH  21  70
ATOM     70  O   UNL     1       4.882  -6.856   1.071  0.00  0.00    -0.195 OA
BRANCH  70  71
ATOM     71  S   UNL     1       6.212  -5.794   0.902  0.00  0.00    +0.239 S 
ATOM     72  O   UNL     1       7.062  -6.228  -0.294  0.00  0.00    -0.116 OA
ATOM     73  O   UNL     1       5.701  -4.369   0.675  0.00  0.00    -0.116 OA
ATOM     74  O   UNL     1       7.162  -5.840   2.323  0.00  0.00    -0.022 OA
ENDBRANCH  70  71
ENDBRANCH  21  70
ENDBRANCH  14  18
ENDBRANCH   1  14
BRANCH   4  75
ATOM     75  O   UNL     1      -2.429 -11.672  -2.941  0.00  0.00    -0.326 OA
BRANCH  75  76
ATOM     76  C   UNL     1      -2.903 -10.350  -3.152  0.00  0.00    +0.269 C 
ATOM     77  O   UNL     1      -3.692 -10.312  -4.332  0.00  0.00    -0.317 OA
ATOM     78  C   UNL     1      -4.165  -8.990  -4.542  0.00  0.00    +0.245 C 
ATOM     79  C   UNL     1      -5.009  -8.949  -5.805  0.00  0.00    +0.189 C 
ATOM     80  C   UNL     1      -5.516  -7.534  -6.031  0.00  0.00    +0.216 C 
ATOM     81  O   UNL     1      -6.305  -7.496  -7.211  0.00  0.00    -0.218 OA
ATOM     82  C   UNL     1      -1.721  -9.407  -3.302  0.00  0.00    +0.236 C 
BRANCH  78  83
ATOM     83  C   UNL     1      -2.983  -8.047  -4.692  0.00  0.00    +0.347 C 
ATOM     84  O   UNL     1      -2.834  -7.379  -5.764  0.00  0.00    -0.247 OA
BRANCH  83  85
ATOM     85  O   UNL     1      -2.044  -7.911  -3.635  0.00  0.00    -0.442 OA
BRANCH  85  86
ATOM     86  C   UNL     1      -0.940  -7.029  -3.776  0.00  0.00    +0.235 C 
BRANCH  86  87
ATOM     87  C   UNL     1      -0.095  -7.070  -2.513  0.00  0.00    +0.021 A 
ATOM     88  C   UNL     1       1.089  -6.256  -2.411  0.00  0.00    +0.002 A 
ATOM     89  C   UNL     1       1.889  -6.295  -1.214  0.00  0.00    +0.037 A 
ATOM     90  C   UNL     1       3.073  -5.481  -1.113  0.00  0.00    +0.139 A 
ATOM     91  C   UNL     1       3.873  -5.520   0.084  0.00  0.00    +0.037 A 
ATOM     92  C   UNL     1      -0.479  -7.922  -1.417  0.00  0.00    +0.002 A 
BRANCH  90  93
ATOM     93  O   UNL     1       3.451  -4.641  -2.193  0.00  0.00    -0.471 OA
ATOM     94  C   UNL     1       2.663  -4.603  -3.373  0.00  0.00    +0.252 C 
ENDBRANCH  90  93
ENDBRANCH  86  87
ENDBRANCH  85  86
ENDBRANCH  83  85
ENDBRANCH  78  83
BRANCH  79  95
ATOM     95  O   UNL     1      -6.114  -9.831  -5.665  0.00  0.00    -0.326 OA
BRANCH  95  96
ATOM     96  C   UNL     1      -5.641 -11.153  -5.455  0.00  0.00    +0.257 C 
ATOM     97  O   UNL     1      -6.745 -12.034  -5.314  0.00  0.00    -0.326 OA
ATOM     98  C   UNL     1      -6.272 -13.356  -5.104  0.00  0.00    +0.183 C 
ATOM     99  C   UNL     1      -7.454 -14.300  -4.954  0.00  0.00    +0.213 C 
ATOM    100  O   UNL     1      -8.243 -14.262  -6.134  0.00  0.00    -0.218 OA
ATOM    101  C   UNL     1      -6.947 -15.715  -4.728  0.00  0.00    +0.207 C 
ATOM    102  O   UNL     1      -8.052 -16.597  -4.588  0.00  0.00    -0.219 OA
ATOM    103  C   UNL     1      -4.796 -11.194  -4.191  0.00  0.00    +0.189 C 
BRANCH  98 104
ATOM    104  C   UNL     1      -5.427 -13.397  -3.841  0.00  0.00    +0.209 C 
BRANCH 104 105
ATOM    105  O   UNL     1      -4.323 -12.516  -3.981  0.00  0.00    -0.198 OA
BRANCH 105 106
ATOM    106  S   UNL     1      -3.373 -12.562  -2.560  0.00  0.00    +0.239 S 
ATOM    107  O   UNL     1      -4.223 -12.128  -1.364  0.00  0.00    -0.116 OA
ATOM    108  O   UNL     1      -2.863 -13.987  -2.333  0.00  0.00    -0.116 OA
ATOM    109  O   UNL     1      -2.043 -11.500  -2.729  0.00  0.00    -0.022 OA
ENDBRANCH 105 106
ENDBRANCH 104 105
ENDBRANCH  98 104
BRANCH 103 110
ATOM    110  N   UNL     1      -3.653 -10.281  -4.337  0.00  0.00    -0.047 NA
BRANCH 110 111
ATOM    111  S   UNL     1      -2.675 -10.328  -2.874  0.00  0.00    +0.197 S 
ATOM    112  O   UNL     1      -3.525  -9.895  -1.678  0.00  0.00    -0.126 OA
ATOM    113  O   UNL     1      -2.165 -11.753  -2.647  0.00  0.00    -0.126 OA
ATOM    114  O   UNL     1      -1.345  -9.267  -3.043  0.00  0.00    -0.031 OA
ENDBRANCH 110 111
ENDBRANCH 103 110
ENDBRANCH  95  96
ENDBRANCH  79  95
BRANCH  82 115
ATOM    115  O   UNL     1      -0.932  -9.445  -2.122  0.00  0.00    -0.195 OA
BRANCH 115 116
ATOM    116  S   UNL     1       0.398  -8.384  -2.291  0.00  0.00    +0.239 S 
ATOM    117  O   UNL     1       1.249  -8.817  -3.487  0.00  0.00    -0.116 OA
ATOM    118  O   UNL     1      -0.112  -6.959  -2.517  0.00  0.00    -0.116 OA
ATOM    119  O   UNL     1       1.348  -8.429  -0.870  0.00  0.00    -0.022 OA
ENDBRANCH 115 116
ENDBRANCH  82 115
ENDBRANCH  75  76
ENDBRANCH   4  75
BRANCH   7 120
ATOM    120  N   UNL     1       2.161  -7.692  -1.144  0.00  0.00    -0.047 NA
BRANCH 120 121
ATOM    121  S   UNL     1       3.138  -7.739   0.319  0.00  0.00    +0.197 S 
ATOM    122  O   UNL     1       2.288  -7.305   1.515  0.00  0.00    -0.126 OA
ATOM    123  O   UNL     1       3.648  -9.164   0.545  0.00  0.00    -0.126 OA
ATOM    124  O   UNL     1       4.468  -6.678   0.150  0.00  0.00    -0.031 OA
ENDBRANCH 120 121
ENDBRANCH   7 120
TORSDOF 45
