REMARK  Name = 
REMARK  6 active torsions:
REMARK  status: ('A' for Active; 'I' for Inactive)
REMARK    1  A    between atoms: O_2  and  C_3
REMARK    2  A    between atoms: C_8  and  N_9
REMARK    3  A    between atoms: N_12  and  C_13
REMARK    4  A    between atoms: C_13  and  C_14
REMARK    5  A    between atoms: C_14  and  C_16
REMARK    6  A    between atoms: C_21  and  C_22
REMARK                            x       y       z     vdW  Elec       q    Type
REMARK                         _______ _______ _______ _____ _____    ______ ____
ROOT
ATOM      1  N   UNL     1       0.881   2.381   0.592  0.00  0.00    -0.302 N 
ATOM      2  C   UNL     1       0.146   3.625   0.861  0.00  0.00    +0.108 C 
ATOM      3  C   UNL     1      -1.348   3.354   0.802  0.00  0.00    +0.094 C 
ATOM      4  N   UNL     1      -2.083   4.598   1.070  0.00  0.00    -0.267 NA
ATOM      5  C   UNL     1      -3.528   4.336   1.014  0.00  0.00    +0.094 C 
ATOM      6  C   UNL     1       0.146   1.136   0.324  0.00  0.00    +0.108 C 
ENDROOT
BRANCH   1  12
ATOM      7  C   UNL     1       3.071   1.162   0.329  0.00  0.00    +0.152 A 
ATOM      8  C   UNL     1       4.512   1.162   0.329  0.00  0.00    +0.038 A 
ATOM      9  C   UNL     1       5.232   2.381   0.592  0.00  0.00    +0.003 A 
ATOM     10  C   UNL     1       6.672   2.381   0.592  0.00  0.00    +0.001 A 
ATOM     11  C   UNL     1       7.392   3.600   0.855  0.00  0.00    +0.018 A 
ATOM     12  C   UNL     1       2.351   2.381   0.592  0.00  0.00    +0.082 A 
BRANCH   7  14
ATOM     13  C   UNL     1       0.941  -0.040   0.070  0.00  0.00    +0.253 C 
ATOM     14  O   UNL     1       2.361  -0.040   0.070  0.00  0.00    -0.470 OA
ENDBRANCH   7  14
ENDBRANCH   1  12
BRANCH   4  15
ATOM     15  C   UNL     1      -1.728   5.605   0.060  0.00  0.00    +0.110 C 
BRANCH  15  16
ATOM     16  C   UNL     1      -0.234   5.876   0.118  0.00  0.00    +0.190 C 
ATOM     17  O   UNL     1       0.476   4.674  -0.141  0.00  0.00    -0.217 OA
BRANCH  16  18
ATOM     18  C   UNL     1       0.134   6.917  -0.927  0.00  0.00    +0.009 A 
ATOM     19  C   UNL     1       1.502   7.344  -1.068  0.00  0.00    +0.001 A 
ATOM     20  C   UNL     1       1.850   8.331  -2.058  0.00  0.00    +0.042 A 
ATOM     21  C   UNL     1       3.218   8.758  -2.199  0.00  0.00    +0.200 A 
ATOM     22  O   UNL     1       4.223   8.207  -1.362  0.00  0.00    -0.286 OA
ATOM     23  C   UNL     1       3.566   9.744  -3.190  0.00  0.00    +0.095 A 
ATOM     24  C   UNL     1      -0.887   7.476  -1.776  0.00  0.00    +0.006 A 
BRANCH  23  25
ATOM     25  C   UNL     1       5.009  10.195  -3.338  0.00  0.00    +0.287 C 
ATOM     26  N   UNL     1       6.051   9.625  -2.472  0.00  0.00    -0.084 NA
ATOM     27  O   UNL     1       5.316  11.065  -4.212  0.00  0.00    -0.267 OA
ENDBRANCH  23  25
ENDBRANCH  16  18
ENDBRANCH  15  16
ENDBRANCH   4  15
TORSDOF 6
