REMARK  Name = 
REMARK  8 active torsions:
REMARK  status: ('A' for Active; 'I' for Inactive)
REMARK    1  A    between atoms: C_5  and  O_6
REMARK    2  A    between atoms: O_6  and  C_7
REMARK    3  A    between atoms: C_7  and  C_8
REMARK    4  A    between atoms: C_8  and  C_9
REMARK    5  A    between atoms: C_9  and  O_10
REMARK    6  A    between atoms: O_10  and  N_11
REMARK    7  A    between atoms: N_14  and  C_15
REMARK    8  A    between atoms: N_17  and  C_18
REMARK                            x       y       z     vdW  Elec       q    Type
REMARK                         _______ _______ _______ _____ _____    ______ ____
ROOT
ATOM      1  C   UNL     1       1.164  -3.308   3.902  0.00  0.00    +0.180 C 
ENDROOT
BRANCH   1   2
ATOM      2  C   UNL     1       2.684  -3.308   3.902  0.00  0.00    +0.082 C 
BRANCH   2   3
ATOM      3  C   UNL     1       3.191  -2.391   2.801  0.00  0.00    +0.208 C 
BRANCH   3   4
ATOM      4  O   UNL     1       4.611  -2.391   2.801  0.00  0.00    -0.475 OA
BRANCH   4   9
ATOM      5  C   UNL     1       0.921  -0.007  -0.060  0.00  0.00    +0.031 C 
ATOM      6  C   UNL     1       2.441  -0.007  -0.060  0.00  0.00    -0.026 A 
ATOM      7  C   UNL     1       3.161  -0.805   0.898  0.00  0.00    -0.001 A 
ATOM      8  C   UNL     1       4.601  -0.805   0.898  0.00  0.00    +0.037 A 
ATOM      9  C   UNL     1       5.321  -1.604   1.856  0.00  0.00    +0.138 A 
ATOM     10  C   UNL     1       6.761  -1.604   1.856  0.00  0.00    +0.032 A 
ATOM     11  C   UNL     1       3.161   0.791  -1.019  0.00  0.00    -0.023 A 
ATOM     12  C   UNL     1       2.401   1.634  -2.030  0.00  0.00    +0.031 C 
ENDBRANCH   4   9
ENDBRANCH   3   4
ENDBRANCH   2   3
ENDBRANCH   1   2
BRANCH   1  13
ATOM     13  O   UNL     1       0.691  -4.165   4.931  0.00  0.00    -0.234 OA
BRANCH  13  14
ATOM     14  N   UNL     1      -0.679  -4.165   4.931  0.00  0.00    -0.089 NA
ATOM     15  C   UNL     1      -1.414  -4.979   5.909  0.00  0.00    +0.296 C 
ATOM     16  N   UNL     1      -0.679  -5.794   6.887  0.00  0.00    -0.103 NA
ATOM     17  N   UNL     1      -2.730  -4.979   5.909  0.00  0.00    -0.170 NA
BRANCH  17  18
ATOM     18  C   UNL     1      -3.465  -5.794   6.887  0.00  0.00    +0.269 C 
ATOM     19  N   UNL     1      -2.730  -6.609   7.866  0.00  0.00    -0.105 NA
ATOM     20  N   UNL     1      -4.780  -5.794   6.887  0.00  0.00    -0.237 NA
BRANCH  20  21
ATOM     21  C   UNL     1      -5.515  -6.609   7.866  0.00  0.00    +0.107 C 
ATOM     22  C   UNL     1      -5.148  -6.165   9.272  0.00  0.00    +0.026 C 
ATOM     23  C   UNL     1      -7.010  -6.431   7.652  0.00  0.00    +0.026 C 
ENDBRANCH  20  21
ENDBRANCH  17  18
ENDBRANCH  13  14
ENDBRANCH   1  13
TORSDOF 8
