REMARK  Name = 
REMARK  17 active torsions:
REMARK  status: ('A' for Active; 'I' for Inactive)
REMARK    1  A    between atoms: C_2  and  C_3
REMARK    2  A    between atoms: C_3  and  C_4
REMARK    3  A    between atoms: C_5  and  C_6
REMARK    4  A    between atoms: N_8  and  C_9
REMARK    5  A    between atoms: C_9  and  C_11
REMARK    6  A    between atoms: N_18  and  C_19
REMARK    7  A    between atoms: C_19  and  C_20
REMARK    8  A    between atoms: C_20  and  O_22
REMARK    9  A    between atoms: O_22  and  C_23
REMARK   10  A    between atoms: C_27  and  C_28
REMARK   11  A    between atoms: N_30  and  C_31
REMARK   12  A    between atoms: C_31  and  C_32
REMARK   13  A    between atoms: C_31  and  C_39
REMARK   14  A    between atoms: C_32  and  C_33
REMARK   15  A    between atoms: C_39  and  C_41
REMARK   16  A    between atoms: C_41  and  N_42
REMARK   17  A    between atoms: N_42  and  C_43
REMARK                            x       y       z     vdW  Elec       q    Type
REMARK                         _______ _______ _______ _____ _____    ______ ____
ROOT
ATOM      1  C   UNL     1       7.396  -9.573   0.331  0.00  0.00    +0.056 C 
ATOM      2  C   UNL     1       8.074 -10.900   0.030  0.00  0.00    +0.052 C 
ATOM      3  C   UNL     1       7.786 -11.566  -1.120  0.00  0.00    +0.066 C 
ATOM      4  N   UNL     1       8.442 -12.849  -1.411  0.00  0.00    -0.275 N 
ATOM      5  C   UNL     1       8.130 -13.569  -2.653  0.00  0.00    +0.066 C 
ATOM      6  C   UNL     1       7.728  -8.574  -0.766  0.00  0.00    +0.052 C 
ENDROOT
BRANCH   2   7
ATOM      7  C   UNL     1       9.076 -11.482   1.015  0.00  0.00    +0.263 C 
ATOM      8  O   UNL     1       9.643 -12.591   0.764  0.00  0.00    -0.269 OA
ATOM      9  N   UNL     1       9.388 -10.761   2.258  0.00  0.00    -0.199 NA
BRANCH   9  10
ATOM     10  C   UNL     1      10.356 -11.324   3.210  0.00  0.00    +0.118 C 
ATOM     11  C   UNL     1      11.705 -11.481   2.528  0.00  0.00    +0.028 C 
BRANCH  10  12
ATOM     12  C   UNL     1      10.496 -10.390   4.401  0.00  0.00    -0.003 A 
ATOM     13  C   UNL     1      11.393 -10.725   5.477  0.00  0.00    -0.003 A 
ATOM     14  C   UNL     1      11.526  -9.841   6.606  0.00  0.00    -0.000 A 
ATOM     15  C   UNL     1      12.423 -10.176   7.682  0.00  0.00    -0.000 A 
ATOM     16  C   UNL     1      12.556  -9.291   8.811  0.00  0.00    -0.000 A 
ATOM     17  C   UNL     1       9.732  -9.171   4.455  0.00  0.00    -0.003 A 
ENDBRANCH  10  12
ENDBRANCH   9  10
ENDBRANCH   2   7
BRANCH   6  18
ATOM     18  C   UNL     1       7.169  -7.162  -0.702  0.00  0.00    +0.262 C 
ATOM     19  O   UNL     1       6.424  -6.817   0.268  0.00  0.00    -0.269 OA
ATOM     20  N   UNL     1       7.490  -6.196  -1.763  0.00  0.00    -0.201 NA
BRANCH  20  21
ATOM     21  C   UNL     1       6.950  -4.831  -1.701  0.00  0.00    +0.132 C 
BRANCH  21  22
ATOM     22  C   UNL     1       5.438  -4.991  -1.706  0.00  0.00    +0.189 C 
ATOM     23  O   UNL     1       4.851  -3.967  -0.918  0.00  0.00    -0.220 OA
BRANCH  22  24
ATOM     24  C   UNL     1       5.071  -6.349  -1.129  0.00  0.00    +0.123 C 
BRANCH  24  25
ATOM     25  N   UNL     1       5.680  -7.409  -1.946  0.00  0.00    -0.217 NA
BRANCH  25  26
ATOM     26  C   UNL     1       5.324  -8.722  -1.388  0.00  0.00    +0.073 C 
ATOM     27  C   UNL     1       5.954  -9.818  -2.232  0.00  0.00    +0.019 C 
ATOM     28  C   UNL     1       3.813  -8.883  -1.393  0.00  0.00    +0.019 C 
ENDBRANCH  25  26
ENDBRANCH  24  25
ENDBRANCH  22  24
ENDBRANCH  21  22
BRANCH  21  29
ATOM     29  C   UNL     1       7.430  -4.152  -0.429  0.00  0.00    +0.051 C 
BRANCH  29  30
ATOM     30  C   UNL     1       6.951  -4.942   0.778  0.00  0.00    -0.020 A 
ATOM     31  C   UNL     1       7.281  -4.496   2.108  0.00  0.00    -0.004 A 
ATOM     32  C   UNL     1       6.827  -5.244   3.251  0.00  0.00    -0.000 A 
ATOM     33  C   UNL     1       7.157  -4.799   4.581  0.00  0.00    -0.000 A 
ATOM     34  C   UNL     1       6.703  -5.547   5.724  0.00  0.00    -0.000 A 
ATOM     35  C   UNL     1       6.166  -6.135   0.593  0.00  0.00    -0.004 A 
ENDBRANCH  29  30
ENDBRANCH  21  29
ENDBRANCH  20  21
ENDBRANCH   6  18
BRANCH   1  36
ATOM     36  C   UNL     1       7.890  -9.042   1.667  0.00  0.00    +0.009 C 
BRANCH  36  38
ATOM     37  C   UNL     1       7.706  -7.185   3.303  0.00  0.00    +0.000 C 
ATOM     38  C   UNL     1       7.212  -7.716   1.967  0.00  0.00    +0.001 C 
ENDBRANCH  36  38
ENDBRANCH   1  36
BRANCH   4  39
ATOM     39  C   UNL     1       9.410 -13.412  -0.458  0.00  0.00    +0.206 C 
BRANCH  39  40
ATOM     40  C   UNL     1       9.550 -12.478   0.733  0.00  0.00    +0.338 C 
ATOM     41  O   UNL     1       8.876 -11.402   0.780  0.00  0.00    -0.248 OA
BRANCH  40  42
ATOM     42  O   UNL     1      10.435 -12.809   1.794  0.00  0.00    -0.451 OA
BRANCH  42  43
ATOM     43  C   UNL     1      10.565 -11.936   2.907  0.00  0.00    +0.169 C 
ATOM     44  C   UNL     1       9.216 -11.780   3.589  0.00  0.00    +0.047 C 
ATOM     45  C   UNL     1      11.567 -12.518   3.891  0.00  0.00    +0.047 C 
ENDBRANCH  42  43
ENDBRANCH  40  42
ENDBRANCH  39  40
ENDBRANCH   4  39
TORSDOF 17
