REMARK  Name = 
REMARK  10 active torsions:
REMARK  status: ('A' for Active; 'I' for Inactive)
REMARK    1  A    between atoms: N_3  and  C_4
REMARK    2  A    between atoms: C_4  and  C_5
REMARK    3  A    between atoms: C_5  and  C_6
REMARK    4  A    between atoms: C_6  and  C_7
REMARK    5  A    between atoms: C_7  and  C_9
REMARK    6  A    between atoms: N_11  and  C_12
REMARK    7  A    between atoms: C_12  and  C_13
REMARK    8  A    between atoms: C_12  and  C_16
REMARK    9  A    between atoms: C_13  and  C_14
REMARK   10  A    between atoms: N_19  and  N_20
REMARK                            x       y       z     vdW  Elec       q    Type
REMARK                         _______ _______ _______ _____ _____    ______ ____
ROOT
ATOM      1  C   UNL     1       3.550   3.707  -4.814  0.00  0.00    +0.169 C 
ATOM      2  N   UNL     1       2.594   3.023  -3.930  0.00  0.00    -0.123 NA
ENDROOT
BRANCH   1   3
ATOM      3  C   UNL     1       2.790   4.512  -5.855  0.00  0.00    +0.259 C 
ATOM      4  O   UNL     1       1.519   4.512  -5.855  0.00  0.00    -0.272 OA
ATOM      5  N   UNL     1       3.525   5.290  -6.862  0.00  0.00    -0.196 NA
BRANCH   5   6
ATOM      6  C   UNL     1       2.790   6.069  -7.870  0.00  0.00    +0.176 C 
BRANCH   6   7
ATOM      7  C   UNL     1       3.777   6.775  -8.784  0.00  0.00    +0.281 C 
ATOM      8  N   UNL     1       5.223   6.611  -8.571  0.00  0.00    -0.086 NA
ATOM      9  O   UNL     1       3.354   7.508  -9.732  0.00  0.00    -0.270 OA
ENDBRANCH   6   7
BRANCH   6  10
ATOM     10  C   UNL     1       1.916   7.100  -7.175  0.00  0.00    +0.052 C 
BRANCH  10  11
ATOM     11  C   UNL     1       0.928   6.393  -6.260  0.00  0.00    +0.112 C 
ATOM     12  N   UNL     1       0.083   7.391  -5.588  0.00  0.00    -0.131 NA
ENDBRANCH  10  11
ENDBRANCH   6  10
ENDBRANCH   5   6
ENDBRANCH   1   3
BRANCH   1  13
ATOM     13  C   UNL     1       4.424   2.675  -5.509  0.00  0.00    +0.030 C 
BRANCH  13  14
ATOM     14  C   UNL     1       5.492   3.435  -6.278  0.00  0.00    +0.028 C 
BRANCH  14  15
ATOM     15  C   UNL     1       6.435   2.446  -6.945  0.00  0.00    +0.129 C 
BRANCH  15  18
ATOM     16  N   UNL     1       8.511   1.129  -8.418  0.00  0.00    -0.104 NA
ATOM     17  C   UNL     1       8.507   2.444  -8.425  0.00  0.00    +0.289 C 
ATOM     18  N   UNL     1       7.469   3.180  -7.689  0.00  0.00    -0.234 NA
ATOM     19  N   UNL     1       9.540   3.179  -9.169  0.00  0.00    -0.054 NA
BRANCH  19  20
ATOM     20  N   UNL     1       9.536   4.599  -9.177  0.00  0.00    +0.157 N 
ATOM     21  O   UNL     1       8.670   5.212  -8.563  0.00  0.00    -0.106 OA
ATOM     22  O   UNL     1      10.499   5.283  -9.871  0.00  0.00    -0.106 OA
ENDBRANCH  19  20
ENDBRANCH  15  18
ENDBRANCH  14  15
ENDBRANCH  13  14
ENDBRANCH   1  13
TORSDOF 10
