REMARK  Name = 
REMARK  10 active torsions:
REMARK  status: ('A' for Active; 'I' for Inactive)
REMARK    1  A    between atoms: C_8  and  C_9
REMARK    2  A    between atoms: C_12  and  N_13
REMARK    3  A    between atoms: C_14  and  C_16
REMARK    4  A    between atoms: C_16  and  C_17
REMARK    5  A    between atoms: C_17  and  N_18
REMARK    6  A    between atoms: N_18  and  C_19
REMARK    7  A    between atoms: C_19  and  C_20
REMARK    8  A    between atoms: C_20  and  C_22
REMARK    9  A    between atoms: C_22  and  O_23
REMARK   10  A    between atoms: O_23  and  C_24
REMARK                            x       y       z     vdW  Elec       q    Type
REMARK                         _______ _______ _______ _____ _____    ______ ____
ROOT
ATOM      1  N   UNL     1       4.021   1.019  -6.493  0.00  0.00    -0.179 NA
ATOM      2  C   UNL     1       4.376   1.776  -5.283  0.00  0.00    +0.247 C 
ATOM      3  O   UNL     1       3.953   1.393  -4.148  0.00  0.00    -0.273 OA
ENDROOT
BRANCH   1   7
ATOM      4  C   UNL     1       2.564  -0.305  -2.630  0.00  0.00    +0.015 A 
ATOM      5  C   UNL     1       3.044   0.129  -3.917  0.00  0.00    +0.003 A 
ATOM      6  C   UNL     1       2.696  -0.612  -5.102  0.00  0.00    +0.017 A 
ATOM      7  C   UNL     1       3.176  -0.179  -6.389  0.00  0.00    +0.073 A 
ATOM      8  C   UNL     1       2.828  -0.920  -7.574  0.00  0.00    +0.017 A 
ATOM      9  C   UNL     1       1.736  -1.479  -2.528  0.00  0.00    +0.003 A 
BRANCH   4  17
ATOM     10  C   UNL     1       0.904   0.020  -0.021  0.00  0.00    +0.007 C 
ATOM     11  C   UNL     1       2.424   0.020  -0.021  0.00  0.00    +0.051 C 
ATOM     12  C   UNL     1       2.931   0.968   1.054  0.00  0.00    +0.095 C 
ATOM     13  C   UNL     1       4.451   0.968   1.054  0.00  0.00    +0.263 C 
ATOM     14  O   UNL     1       5.086   0.240   0.228  0.00  0.00    -0.271 OA
ATOM     15  N   UNL     1       5.186   1.809   2.009  0.00  0.00    -0.080 NA
ATOM     16  N   UNL     1       6.606   1.809   2.009  0.00  0.00    -0.161 NA
ATOM     17  C   UNL     1       2.931   0.477  -1.379  0.00  0.00    +0.078 C 
ENDBRANCH   4  17
ENDBRANCH   1   7
BRANCH   2  18
ATOM     18  C   UNL     1       5.250   3.015  -5.391  0.00  0.00    +0.106 C 
BRANCH  18  19
ATOM     19  C   UNL     1       5.465   3.604  -4.006  0.00  0.00    +0.098 C 
BRANCH  19  20
ATOM     20  N   UNL     1       6.311   4.803  -4.110  0.00  0.00    -0.215 NA
BRANCH  20  21
ATOM     21  C   UNL     1       6.519   5.373  -2.771  0.00  0.00    +0.125 C 
BRANCH  21  22
ATOM     22  C   UNL     1       7.393   6.612  -2.879  0.00  0.00    +0.213 C 
ATOM     23  O   UNL     1       6.754   7.571  -3.708  0.00  0.00    -0.218 OA
BRANCH  22  24
ATOM     24  C   UNL     1       7.608   7.201  -1.494  0.00  0.00    +0.240 C 
BRANCH  24  25
ATOM     25  O   UNL     1       8.425   8.359  -1.595  0.00  0.00    -0.473 OA
BRANCH  25  26
ATOM     26  C   UNL     1       8.768   9.089  -0.426  0.00  0.00    +0.140 A 
ATOM     27  C   UNL     1       9.596  10.263  -0.528  0.00  0.00    +0.037 A 
ATOM     28  C   UNL     1       9.943  11.004   0.657  0.00  0.00    +0.005 A 
ATOM     29  C   UNL     1      10.771  12.178   0.555  0.00  0.00    +0.019 A 
ATOM     30  C   UNL     1      11.119  12.919   1.740  0.00  0.00    +0.084 A 
ATOM     31  N   UNL     1      11.920  14.054   1.642  0.00  0.00    -0.244 NA
ATOM     32  C   UNL     1      12.257  14.771   2.788  0.00  0.00    +0.099 A 
ATOM     33  C   UNL     1      13.085  15.945   2.686  0.00  0.00    +0.025 A 
ATOM     34  C   UNL     1      10.639  12.486   3.027  0.00  0.00    +0.053 A 
ENDBRANCH  25  26
ENDBRANCH  24  25
ENDBRANCH  22  24
ENDBRANCH  21  22
ENDBRANCH  20  21
ENDBRANCH  19  20
ENDBRANCH  18  19
ENDBRANCH   2  18
TORSDOF 10
